<?xml version="1.0" encoding="UTF-8"?>

<!-- generated on Tue Sep 22 20:25:18 2015 by SUMO garouter Version 0.22.0
<?xml version="1.0" encoding="UTF-8"?>

<configuration xmlns:xsi="http://www.w3.org/2001/XMLSchema-instance" xsi:noNamespaceSchemaLocation="http://sumo.dlr.de/xsd/garouterConfiguration.xsd">

    <input>
        <net-file value="/Users/ctomas/RTGAR/python/testgar/config/../data/__case_4.net.xml"/>
        <detector-files value="/Users/ctomas/RTGAR/python/testgar/config/../data/__detectors.det.xml"/>
        <measure-files value="/Users/ctomas/RTGAR/python/testgar/config/../data/__detector_flows.dat"/>
        <od-matrix-file value="/Users/ctomas/RTGAR/python/testgar/config/../data/__od-matrix.dat"/>
        <taz-file value="/Users/ctomas/RTGAR/python/testgar/config/../data/case_4.tazs.add.xml"/>
        <od-groups-file value="/Users/ctomas/RTGAR/python/testgar/config/../data/case_4.odgroups4.xml"/>
    </input>

    <output>
        <routes-output value="/Users/ctomas/RTGAR/python/testgar/config/../data/__dfroutes.rou.xml"/>
        <detectors-poi-output value="/Users/ctomas/RTGAR/python/testgar/config/../data/__detectors.poi.xml"/>
        <emitters-output value="/Users/ctomas/RTGAR/python/testgar/config/../data/__emitters.add.xml"/>
        <induction-loops-output value="/Users/ctomas/RTGAR/python/testgar/config/../data/__induction_loops.add.xml"/>
        <emitters-poi-output value="/Users/ctomas/RTGAR/python/testgar/config/../data/__emitters.poi.xml"/>
        <validation-output value="/Users/ctomas/RTGAR/python/testgar/config/../data/__validation.out.xml"/>
    </output>

    <processing>
        <k-shortest-routes value="8"/>
        <k-shortest-selected value="5"/>
        <keep-longer-routes value="false"/>
        <time-to-teleport value="20"/>
        <dynamic-trigger value="0.7"/>
        <include-unused-routes value="false"/>
        <remove-empty-detectors value="true"/>
    </processing>

    <gaparameters>
        <genetic-algorithm value="Deme"/>
        <number-of-generations value="500"/>
        <population-size value="50"/>
        <number-of-populations value="9"/>
        <convergence-percentage value="0.995"/>
        <crossover-probability value="0.9"/>
        <mutation-probability value="0.1"/>
        <replacement-percentage value="1"/>
        <score-freq value="10"/>
        <flush-freq value="50"/>
        <score-file value="/Users/ctomas/RTGAR/results/gar_statistics.dat"/>
        <select-scores value="GAStatistics::Mean | GAStatistics::Maximum | GAStatistics::Minimum | GAStatistics::Deviation | GAStatistics::Diversity"/>
        <record-diversity value="true"/>
        <genome-mutator value="Flip"/>
        <genome-crossover value="Uniform"/>
        <scaling-scheme value="Sharing"/>
        <power-scaling-factor value="3"/>
        <sharing-cutoff value="0.5"/>
        <sharing-alpha value="1"/>
        <selection-scheme value="Tournament"/>
        <termination-function value="UponGeneration"/>
        <replacement-scheme value="Worst"/>
    </gaparameters>

    <defaults>
        <departpos value="10"/>
    </defaults>

    <time>
        <begin value="54000"/>
        <end value="55600"/>
    </time>

    <report>
        <verbose value="true"/>
        <xml-validation value="auto"/>
        <report-empty-detectors value="true"/>
        <print-absolute-flows value="true"/>
    </report>

</configuration>
-->

<routes>

    <route id="ew09to08_to_ew06to05" edges="ew09to08 ew08to07 ns07to13 ew13to12 sn12to06 ew06to05"/>
    <route id="ew09to08_to_ew06to05_1" edges="ew09to08 ns08to14 ew14to13 ew13to12 sn12to06 ew06to05"/>
    <route id="ew09to08_to_ew06to05_2" edges="ew09to08 ns08to14 ew14to13 sn13to07 ew07to06 ew06to05"/>
    <route id="ew09to08_to_ew06to05_3" edges="ew09to08 ns08to14 ns14to20 ew20to19 ew19to18 sn18to12 sn12to06 ew06to05"/>
    <route id="ew09to08_to_ew06to05_4" edges="ew09to08 ns08to14 ew14to13 ns13to19 ew19to18 sn18to12 sn12to06 ew06to05"/>
    <route id="ew09to08_to_ew12to11" edges="ew09to08 ew08to07 ew07to06 ns06to12 ew12to11"/>
    <route id="ew09to08_to_ew12to11_1" edges="ew09to08 ns08to14 ew14to13 ew13to12 ew12to11"/>
    <route id="ew09to08_to_ew12to11_2" edges="ew09to08 ns08to14 ew14to13 sn13to07 ew07to06 ns06to12 ew12to11"/>
    <route id="ew09to08_to_ew12to11_3" edges="ew09to08 ns08to14 ns14to20 ew20to19 ew19to18 sn18to12 ew12to11"/>
    <route id="ew09to08_to_ew12to11_4" edges="ew09to08 ns08to14 ns14to20 ew20to19 sn19to13 ew13to12 ew12to11"/>
    <route id="ew09to08_to_ew18to17" edges="ew09to08 ew08to07 ew07to06 ns06to12 ns12to18 ew18to17"/>
    <route id="ew09to08_to_ew18to17_1" edges="ew09to08 ew08to07 ns07to13 ew13to12 ns12to18 ew18to17"/>
    <route id="ew09to08_to_ew18to17_2" edges="ew09to08 ns08to14 ew14to13 ns13to19 ew19to18 ew18to17"/>
    <route id="ew09to08_to_ew18to17_3" edges="ew09to08 ns08to14 ns14to20 ew20to19 ew19to18 ew18to17"/>
    <route id="ew09to08_to_ew18to17_4" edges="ew09to08 ew08to07 ew07to06 ns06to12 we12to13 ns13to19 ew19to18 ew18to17"/>
    <route id="ew09to08_to_ns18to24" edges="ew09to08 ew08to07 ew07to06 ns06to12 ns12to18 ns18to24"/>
    <route id="ew09to08_to_ns18to24_1" edges="ew09to08 ns08to14 ns14to20 ew20to19 ew19to18 ns18to24"/>
    <route id="ew09to08_to_ns18to24_2" edges="ew09to08 ns08to14 ew14to13 ew13to12 ns12to18 ns18to24"/>
    <route id="ew09to08_to_ns18to24_3" edges="ew09to08 ns08to14 ew14to13 ns13to19 ew19to18 ns18to24"/>
    <route id="ew09to08_to_ns18to24_4" edges="ew09to08 ew08to07 ew07to06 ns06to12 we12to13 ns13to19 ew19to18 ns18to24"/>
    <route id="ew09to08_to_ns19to25" edges="ew09to08 ew08to07 ns07to13 ns13to19 ns19to25"/>
    <route id="ew09to08_to_ns19to25_1" edges="ew09to08 ns08to14 ns14to20 ew20to19 ns19to25"/>
    <route id="ew09to08_to_ns19to25_2" edges="ew09to08 ew08to07 ew07to06 ns06to12 we12to13 ns13to19 ns19to25"/>
    <route id="ew09to08_to_ns19to25_3" edges="ew09to08 ns08to14 ew14to13 ew13to12 ns12to18 we18to19 ns19to25"/>
    <route id="ew09to08_to_ns19to25_4" edges="ew09to08 ew08to07 ns07to13 we13to14 ns14to20 ew20to19 ns19to25"/>
    <route id="ew09to08_to_ns20to26" edges="ew09to08 ns08to14 ns14to20 ns20to26"/>
    <route id="ew09to08_to_ns20to26_1" edges="ew09to08 ew08to07 ns07to13 ns13to19 we19to20 ns20to26"/>
    <route id="ew09to08_to_ns20to26_2" edges="ew09to08 ew08to07 ns07to13 we13to14 ns14to20 ns20to26"/>
    <route id="ew09to08_to_ns20to26_3" edges="ew09to08 ew08to07 ns07to13 ew13to12 ns12to18 we18to19 we19to20 ns20to26"/>
    <route id="ew09to08_to_ns20to26_4" edges="ew09to08 ew08to07 ew07to06 ns06to12 we12to13 we13to14 ns14to20 ns20to26"/>
    <route id="ew09to08_to_sn06to01" edges="ew09to08 ew08to07 ns07to13 ew13to12 sn12to06 sn06to01"/>
    <route id="ew09to08_to_sn06to01_1" edges="ew09to08 ns08to14 ew14to13 ew13to12 sn12to06 sn06to01"/>
    <route id="ew09to08_to_sn06to01_2" edges="ew09to08 ns08to14 ew14to13 sn13to07 ew07to06 sn06to01"/>
    <route id="ew09to08_to_sn06to01_3" edges="ew09to08 ew08to07 ns07to13 ns13to19 ew19to18 sn18to12 sn12to06 sn06to01"/>
    <route id="ew09to08_to_sn06to01_4" edges="ew09to08 ns08to14 ew14to13 ns13to19 ew19to18 sn18to12 sn12to06 sn06to01"/>
    <route id="ew09to08_to_sn07to02" edges="ew09to08 ns08to14 ew14to13 sn13to07 sn07to02"/>
    <route id="ew09to08_to_sn07to02_1" edges="ew09to08 ns08to14 ew14to13 ew13to12 sn12to06 we06to07 sn07to02"/>
    <route id="ew09to08_to_sn07to02_2" edges="ew09to08 ns08to14 ns14to20 ew20to19 sn19to13 sn13to07 sn07to02"/>
    <route id="ew09to08_to_sn07to02_3" edges="ew09to08 ns08to14 ew14to13 ns13to19 ew19to18 sn18to12 sn12to06 we06to07 sn07to02"/>
    <route id="ew09to08_to_sn07to02_4" edges="ew09to08 ns08to14 ns14to20 ew20to19 ew19to18 sn18to12 sn12to06 we06to07 sn07to02"/>
    <route id="ew09to08_to_sn08to03" edges="ew09to08 sn08to03"/>

    <route id="ew15to14_to_ew06to05" edges="ew15to14 ew14to13 ew13to12 sn12to06 ew06to05"/>
    <route id="ew15to14_to_ew06to05_1" edges="ew15to14 ew14to13 sn13to07 ew07to06 ew06to05"/>
    <route id="ew15to14_to_ew06to05_2" edges="ew15to14 sn14to08 ew08to07 ns07to13 ew13to12 sn12to06 ew06to05"/>
    <route id="ew15to14_to_ew06to05_3" edges="ew15to14 ns14to20 ew20to19 ew19to18 sn18to12 sn12to06 ew06to05"/>
    <route id="ew15to14_to_ew06to05_4" edges="ew15to14 ns14to20 ew20to19 sn19to13 ew13to12 sn12to06 ew06to05"/>
    <route id="ew15to14_to_ew12to11" edges="ew15to14 ew14to13 sn13to07 ew07to06 ns06to12 ew12to11"/>
    <route id="ew15to14_to_ew12to11_1" edges="ew15to14 ew14to13 ns13to19 ew19to18 sn18to12 ew12to11"/>
    <route id="ew15to14_to_ew12to11_2" edges="ew15to14 ns14to20 ew20to19 ew19to18 sn18to12 ew12to11"/>
    <route id="ew15to14_to_ew12to11_3" edges="ew15to14 ns14to20 ew20to19 sn19to13 ew13to12 ew12to11"/>
    <route id="ew15to14_to_ew12to11_4" edges="ew15to14 sn14to08 ew08to07 ew07to06 ns06to12 ew12to11"/>
    <route id="ew15to14_to_ew18to17" edges="ew15to14 ew14to13 ew13to12 ns12to18 ew18to17"/>
    <route id="ew15to14_to_ew18to17_1" edges="ew15to14 ew14to13 ns13to19 ew19to18 ew18to17"/>
    <route id="ew15to14_to_ew18to17_2" edges="ew15to14 sn14to08 ew08to07 ns07to13 ew13to12 ns12to18 ew18to17"/>
    <route id="ew15to14_to_ew18to17_3" edges="ew15to14 sn14to08 ew08to07 ew07to06 ns06to12 ns12to18 ew18to17"/>
    <route id="ew15to14_to_ew18to17_4" edges="ew15to14 ew14to13 sn13to07 ew07to06 ns06to12 ns12to18 ew18to17"/>
    <route id="ew15to14_to_ns18to24" edges="ew15to14 ew14to13 ew13to12 ns12to18 ns18to24"/>
    <route id="ew15to14_to_ns18to24_1" edges="ew15to14 sn14to08 ew08to07 ew07to06 ns06to12 ns12to18 ns18to24"/>
    <route id="ew15to14_to_ns18to24_2" edges="ew15to14 ns14to20 ew20to19 sn19to13 ew13to12 ns12to18 ns18to24"/>
    <route id="ew15to14_to_ns18to24_3" edges="ew15to14 sn14to08 ew08to07 ns07to13 ns13to19 ew19to18 ns18to24"/>
    <route id="ew15to14_to_ns18to24_4" edges="ew15to14 sn14to08 ew08to07 ns07to13 ew13to12 ns12to18 ns18to24"/>
    <route id="ew15to14_to_ns19to25" edges="ew15to14 ns14to20 ew20to19 ns19to25"/>
    <route id="ew15to14_to_ns19to25_1" edges="ew15to14 sn14to08 ew08to07 ns07to13 ns13to19 ns19to25"/>
    <route id="ew15to14_to_ns19to25_2" edges="ew15to14 sn14to08 ew08to07 ns07to13 ew13to12 ns12to18 we18to19 ns19to25"/>
    <route id="ew15to14_to_ns19to25_3" edges="ew15to14 sn14to08 ew08to07 ew07to06 ns06to12 ns12to18 we18to19 ns19to25"/>
    <route id="ew15to14_to_ns19to25_4" edges="ew15to14 sn14to08 ew08to07 ew07to06 ns06to12 we12to13 ns13to19 ns19to25"/>
    <route id="ew15to14_to_ns20to26" edges="ew15to14 ns14to20 ns20to26"/>
    <route id="ew15to14_to_ns20to26_1" edges="ew15to14 ew14to13 ns13to19 we19to20 ns20to26"/>
    <route id="ew15to14_to_ns20to26_2" edges="ew15to14 sn14to08 ew08to07 ns07to13 ns13to19 we19to20 ns20to26"/>
    <route id="ew15to14_to_ns20to26_3" edges="ew15to14 sn14to08 ew08to07 ew07to06 ns06to12 ns12to18 we18to19 we19to20 ns20to26"/>
    <route id="ew15to14_to_ns20to26_4" edges="ew15to14 sn14to08 ew08to07 ew07to06 ns06to12 we12to13 ns13to19 we19to20 ns20to26"/>
    <route id="ew15to14_to_sn06to01" edges="ew15to14 ew14to13 ew13to12 sn12to06 sn06to01"/>
    <route id="ew15to14_to_sn06to01_1" edges="ew15to14 ew14to13 sn13to07 ew07to06 sn06to01"/>
    <route id="ew15to14_to_sn06to01_2" edges="ew15to14 sn14to08 ew08to07 ew07to06 sn06to01"/>
    <route id="ew15to14_to_sn06to01_3" edges="ew15to14 sn14to08 ew08to07 ns07to13 ew13to12 sn12to06 sn06to01"/>
    <route id="ew15to14_to_sn06to01_4" edges="ew15to14 ns14to20 ew20to19 sn19to13 ew13to12 sn12to06 sn06to01"/>
    <route id="ew15to14_to_sn07to02" edges="ew15to14 ew14to13 sn13to07 sn07to02"/>
    <route id="ew15to14_to_sn07to02_1" edges="ew15to14 ew14to13 ew13to12 sn12to06 we06to07 sn07to02"/>
    <route id="ew15to14_to_sn07to02_2" edges="ew15to14 ew14to13 ns13to19 ew19to18 sn18to12 sn12to06 we06to07 sn07to02"/>
    <route id="ew15to14_to_sn07to02_3" edges="ew15to14 ns14to20 ew20to19 ew19to18 sn18to12 sn12to06 we06to07 sn07to02"/>
    <route id="ew15to14_to_sn07to02_4" edges="ew15to14 ns14to20 ew20to19 ew19to18 sn18to12 we12to13 sn13to07 sn07to02"/>
    <route id="ew15to14_to_sn08to03" edges="ew15to14 ew14to13 sn13to07 we07to08 sn08to03"/>
    <route id="ew15to14_to_sn08to03_1" edges="ew15to14 ns14to20 ew20to19 sn19to13 sn13to07 we07to08 sn08to03"/>
    <route id="ew15to14_to_sn08to03_2" edges="ew15to14 ns14to20 ew20to19 sn19to13 ew13to12 sn12to06 we06to07 we07to08 sn08to03"/>
    <route id="ew15to14_to_sn08to03_3" edges="ew15to14 ns14to20 ew20to19 ew19to18 sn18to12 sn12to06 we06to07 we07to08 sn08to03"/>
    <route id="ew15to14_to_sn08to03_4" edges="ew15to14 ns14to20 ew20to19 ew19to18 sn18to12 we12to13 sn13to07 we07to08 sn08to03"/>

    <route id="ew21to20_to_ew06to05" edges="ew21to20 ew20to19 sn19to13 sn13to07 ew07to06 ew06to05"/>
    <route id="ew21to20_to_ew06to05_1" edges="ew21to20 sn20to14 ew14to13 sn13to07 ew07to06 ew06to05"/>
    <route id="ew21to20_to_ew06to05_2" edges="ew21to20 sn20to14 ew14to13 ew13to12 sn12to06 ew06to05"/>
    <route id="ew21to20_to_ew06to05_3" edges="ew21to20 sn20to14 sn14to08 ew08to07 ew07to06 ew06to05"/>
    <route id="ew21to20_to_ew06to05_4" edges="ew21to20 ew20to19 sn19to13 we13to14 sn14to08 ew08to07 ew07to06 ew06to05"/>
    <route id="ew21to20_to_ew12to11" edges="ew21to20 ew20to19 ew19to18 sn18to12 ew12to11"/>
    <route id="ew21to20_to_ew12to11_1" edges="ew21to20 sn20to14 ew14to13 ew13to12 ew12to11"/>
    <route id="ew21to20_to_ew12to11_2" edges="ew21to20 ew20to19 sn19to13 sn13to07 ew07to06 ns06to12 ew12to11"/>
    <route id="ew21to20_to_ew12to11_3" edges="ew21to20 sn20to14 ew14to13 sn13to07 ew07to06 ns06to12 ew12to11"/>
    <route id="ew21to20_to_ew12to11_4" edges="ew21to20 sn20to14 sn14to08 ew08to07 ns07to13 ew13to12 ew12to11"/>
    <route id="ew21to20_to_ew18to17" edges="ew21to20 ew20to19 sn19to13 ew13to12 ns12to18 ew18to17"/>
    <route id="ew21to20_to_ew18to17_1" edges="ew21to20 sn20to14 sn14to08 ew08to07 ew07to06 ns06to12 ns12to18 ew18to17"/>
    <route id="ew21to20_to_ew18to17_2" edges="ew21to20 ew20to19 sn19to13 sn13to07 ew07to06 ns06to12 ns12to18 ew18to17"/>
    <route id="ew21to20_to_ew18to17_3" edges="ew21to20 sn20to14 ew14to13 sn13to07 ew07to06 ns06to12 ns12to18 ew18to17"/>
    <route id="ew21to20_to_ew18to17_4" edges="ew21to20 sn20to14 sn14to08 ew08to07 ns07to13 ns13to19 ew19to18 ew18to17"/>
    <route id="ew21to20_to_ns18to24" edges="ew21to20 ew20to19 ew19to18 ns18to24"/>
    <route id="ew21to20_to_ns18to24_1" edges="ew21to20 ew20to19 sn19to13 ew13to12 ns12to18 ns18to24"/>
    <route id="ew21to20_to_ns18to24_2" edges="ew21to20 sn20to14 ew14to13 ew13to12 ns12to18 ns18to24"/>
    <route id="ew21to20_to_ns18to24_3" edges="ew21to20 sn20to14 ew14to13 ns13to19 ew19to18 ns18to24"/>
    <route id="ew21to20_to_ns18to24_4" edges="ew21to20 sn20to14 sn14to08 ew08to07 ns07to13 ns13to19 ew19to18 ns18to24"/>
    <route id="ew21to20_to_ns19to25" edges="ew21to20 sn20to14 sn14to08 ew08to07 ns07to13 ns13to19 ns19to25"/>
    <route id="ew21to20_to_ns19to25_1" edges="ew21to20 sn20to14 ew14to13 sn13to07 ew07to06 ns06to12 ns12to18 we18to19 ns19to25"/>
    <route id="ew21to20_to_ns19to25_2" edges="ew21to20 sn20to14 sn14to08 ew08to07 ns07to13 ew13to12 ns12to18 we18to19 ns19to25"/>
    <route id="ew21to20_to_ns19to25_3" edges="ew21to20 sn20to14 sn14to08 ew08to07 ew07to06 ns06to12 ns12to18 we18to19 ns19to25"/>
    <route id="ew21to20_to_ns19to25_4" edges="ew21to20 sn20to14 sn14to08 ew08to07 ew07to06 ns06to12 we12to13 ns13to19 ns19to25"/>
    <route id="ew21to20_to_ns20to26" edges="ew21to20 ns20to26"/>
    <route id="ew21to20_to_sn06to01" edges="ew21to20 ew20to19 ew19to18 sn18to12 sn12to06 sn06to01"/>
    <route id="ew21to20_to_sn06to01_1" edges="ew21to20 ew20to19 sn19to13 sn13to07 ew07to06 sn06to01"/>
    <route id="ew21to20_to_sn06to01_2" edges="ew21to20 ew20to19 sn19to13 ew13to12 sn12to06 sn06to01"/>
    <route id="ew21to20_to_sn06to01_3" edges="ew21to20 sn20to14 ew14to13 ew13to12 sn12to06 sn06to01"/>
    <route id="ew21to20_to_sn06to01_4" edges="ew21to20 ew20to19 ew19to18 sn18to12 we12to13 sn13to07 ew07to06 sn06to01"/>
    <route id="ew21to20_to_sn07to02" edges="ew21to20 ew20to19 sn19to13 sn13to07 sn07to02"/>
    <route id="ew21to20_to_sn07to02_1" edges="ew21to20 sn20to14 sn14to08 ew08to07 sn07to02"/>
    <route id="ew21to20_to_sn07to02_2" edges="ew21to20 ew20to19 sn19to13 ew13to12 sn12to06 we06to07 sn07to02"/>
    <route id="ew21to20_to_sn07to02_3" edges="ew21to20 sn20to14 ew14to13 ew13to12 sn12to06 we06to07 sn07to02"/>
    <route id="ew21to20_to_sn07to02_4" edges="ew21to20 ew20to19 sn19to13 we13to14 sn14to08 ew08to07 sn07to02"/>
    <route id="ew21to20_to_sn08to03" edges="ew21to20 sn20to14 sn14to08 sn08to03"/>
    <route id="ew21to20_to_sn08to03_1" edges="ew21to20 sn20to14 ew14to13 sn13to07 we07to08 sn08to03"/>
    <route id="ew21to20_to_sn08to03_2" edges="ew21to20 ew20to19 sn19to13 we13to14 sn14to08 sn08to03"/>
    <route id="ew21to20_to_sn08to03_3" edges="ew21to20 sn20to14 ew14to13 ew13to12 sn12to06 we06to07 we07to08 sn08to03"/>
    <route id="ew21to20_to_sn08to03_4" edges="ew21to20 ew20to19 sn19to13 ew13to12 sn12to06 we06to07 we07to08 sn08to03"/>

    <route id="ns01to06_to_ew06to05" edges="ns01to06 ew06to05"/>
    <route id="ns01to06_to_ew12to11" edges="ns01to06 ns06to12 ew12to11"/>
    <route id="ns01to06_to_ew12to11_1" edges="ns01to06 we06to07 we07to08 ns08to14 ew14to13 ew13to12 ew12to11"/>
    <route id="ns01to06_to_ew12to11_2" edges="ns01to06 we06to07 we07to08 ns08to14 ew14to13 ns13to19 ew19to18 sn18to12 ew12to11"/>
    <route id="ns01to06_to_ew12to11_3" edges="ns01to06 we06to07 we07to08 ns08to14 ns14to20 ew20to19 ew19to18 sn18to12 ew12to11"/>
    <route id="ns01to06_to_ew12to11_4" edges="ns01to06 we06to07 ns07to13 we13to14 ns14to20 ew20to19 ew19to18 sn18to12 ew12to11"/>
    <route id="ns01to06_to_ew18to17" edges="ns01to06 ns06to12 we12to13 ns13to19 ew19to18 ew18to17"/>
    <route id="ns01to06_to_ew18to17_1" edges="ns01to06 we06to07 ns07to13 ns13to19 ew19to18 ew18to17"/>
    <route id="ns01to06_to_ew18to17_2" edges="ns01to06 ns06to12 we12to13 we13to14 ns14to20 ew20to19 ew19to18 ew18to17"/>
    <route id="ns01to06_to_ew18to17_3" edges="ns01to06 we06to07 ns07to13 we13to14 ns14to20 ew20to19 ew19to18 ew18to17"/>
    <route id="ns01to06_to_ew18to17_4" edges="ns01to06 we06to07 we07to08 ns08to14 ew14to13 ew13to12 ns12to18 ew18to17"/>
    <route id="ns01to06_to_ns18to24" edges="ns01to06 ns06to12 ns12to18 ns18to24"/>
    <route id="ns01to06_to_ns18to24_1" edges="ns01to06 ns06to12 we12to13 ns13to19 ew19to18 ns18to24"/>
    <route id="ns01to06_to_ns18to24_2" edges="ns01to06 we06to07 ns07to13 ns13to19 ew19to18 ns18to24"/>
    <route id="ns01to06_to_ns18to24_3" edges="ns01to06 ns06to12 we12to13 we13to14 ns14to20 ew20to19 ew19to18 ns18to24"/>
    <route id="ns01to06_to_ns18to24_4" edges="ns01to06 we06to07 ns07to13 we13to14 ns14to20 ew20to19 ew19to18 ns18to24"/>
    <route id="ns01to06_to_ns19to25" edges="ns01to06 ns06to12 ns12to18 we18to19 ns19to25"/>
    <route id="ns01to06_to_ns19to25_1" edges="ns01to06 we06to07 we07to08 ns08to14 ns14to20 ew20to19 ns19to25"/>
    <route id="ns01to06_to_ns19to25_2" edges="ns01to06 ns06to12 we12to13 we13to14 ns14to20 ew20to19 ns19to25"/>
    <route id="ns01to06_to_ns19to25_3" edges="ns01to06 we06to07 we07to08 ns08to14 ew14to13 ns13to19 ns19to25"/>
    <route id="ns01to06_to_ns19to25_4" edges="ns01to06 we06to07 ns07to13 we13to14 ns14to20 ew20to19 ns19to25"/>
    <route id="ns01to06_to_ns20to26" edges="ns01to06 we06to07 ns07to13 ns13to19 we19to20 ns20to26"/>
    <route id="ns01to06_to_ns20to26_1" edges="ns01to06 we06to07 ns07to13 we13to14 ns14to20 ns20to26"/>
    <route id="ns01to06_to_ns20to26_2" edges="ns01to06 ns06to12 ns12to18 we18to19 we19to20 ns20to26"/>
    <route id="ns01to06_to_ns20to26_3" edges="ns01to06 ns06to12 we12to13 ns13to19 we19to20 ns20to26"/>
    <route id="ns01to06_to_ns20to26_4" edges="ns01to06 we06to07 we07to08 ns08to14 ew14to13 ns13to19 we19to20 ns20to26"/>
    <route id="ns01to06_to_we08to09" edges="ns01to06 we06to07 we07to08 we08to09"/>
    <route id="ns01to06_to_we08to09_1" edges="ns01to06 ns06to12 we12to13 sn13to07 we07to08 we08to09"/>
    <route id="ns01to06_to_we08to09_2" edges="ns01to06 ns06to12 ns12to18 we18to19 sn19to13 sn13to07 we07to08 we08to09"/>
    <route id="ns01to06_to_we08to09_3" edges="ns01to06 we06to07 ns07to13 ns13to19 we19to20 sn20to14 sn14to08 we08to09"/>
    <route id="ns01to06_to_we08to09_4" edges="ns01to06 ns06to12 ns12to18 we18to19 sn19to13 we13to14 sn14to08 we08to09"/>
    <route id="ns01to06_to_we14to15" edges="ns01to06 we06to07 we07to08 ns08to14 we14to15"/>
    <route id="ns01to06_to_we14to15_1" edges="ns01to06 ns06to12 we12to13 we13to14 we14to15"/>
    <route id="ns01to06_to_we14to15_2" edges="ns01to06 we06to07 ns07to13 ns13to19 we19to20 sn20to14 we14to15"/>
    <route id="ns01to06_to_we14to15_3" edges="ns01to06 ns06to12 ns12to18 we18to19 we19to20 sn20to14 we14to15"/>
    <route id="ns01to06_to_we14to15_4" edges="ns01to06 ns06to12 we12to13 ns13to19 we19to20 sn20to14 we14to15"/>
    <route id="ns01to06_to_we20to21" edges="ns01to06 we06to07 ns07to13 we13to14 ns14to20 we20to21"/>
    <route id="ns01to06_to_we20to21_1" edges="ns01to06 we06to07 we07to08 ns08to14 ns14to20 we20to21"/>
    <route id="ns01to06_to_we20to21_2" edges="ns01to06 ns06to12 we12to13 we13to14 ns14to20 we20to21"/>
    <route id="ns01to06_to_we20to21_3" edges="ns01to06 ns06to12 we12to13 ns13to19 we19to20 we20to21"/>
    <route id="ns01to06_to_we20to21_4" edges="ns01to06 we06to07 ns07to13 ew13to12 ns12to18 we18to19 we19to20 we20to21"/>

    <route id="ns02to07_to_ew06to05" edges="ns02to07 ew07to06 ew06to05"/>
    <route id="ns02to07_to_ew06to05_1" edges="ns02to07 ns07to13 ew13to12 sn12to06 ew06to05"/>
    <route id="ns02to07_to_ew06to05_2" edges="ns02to07 we07to08 ns08to14 ew14to13 ew13to12 sn12to06 ew06to05"/>
    <route id="ns02to07_to_ew06to05_3" edges="ns02to07 we07to08 ns08to14 ns14to20 ew20to19 ew19to18 sn18to12 sn12to06 ew06to05"/>
    <route id="ns02to07_to_ew06to05_4" edges="ns02to07 we07to08 ns08to14 ns14to20 ew20to19 sn19to13 ew13to12 sn12to06 ew06to05"/>
    <route id="ns02to07_to_ew12to11" edges="ns02to07 ns07to13 ew13to12 ew12to11"/>
    <route id="ns02to07_to_ew12to11_1" edges="ns02to07 we07to08 ns08to14 ew14to13 ns13to19 ew19to18 sn18to12 ew12to11"/>
    <route id="ns02to07_to_ew12to11_2" edges="ns02to07 we07to08 ns08to14 ns14to20 ew20to19 ew19to18 sn18to12 ew12to11"/>
    <route id="ns02to07_to_ew12to11_3" edges="ns02to07 ns07to13 we13to14 ns14to20 ew20to19 ew19to18 sn18to12 ew12to11"/>
    <route id="ns02to07_to_ew12to11_4" edges="ns02to07 we07to08 ns08to14 ns14to20 ew20to19 sn19to13 ew13to12 ew12to11"/>
    <route id="ns02to07_to_ew18to17" edges="ns02to07 ew07to06 ns06to12 ns12to18 ew18to17"/>
    <route id="ns02to07_to_ew18to17_1" edges="ns02to07 ns07to13 ns13to19 ew19to18 ew18to17"/>
    <route id="ns02to07_to_ew18to17_2" edges="ns02to07 ns07to13 we13to14 ns14to20 ew20to19 ew19to18 ew18to17"/>
    <route id="ns02to07_to_ew18to17_3" edges="ns02to07 we07to08 ns08to14 ns14to20 ew20to19 ew19to18 ew18to17"/>
    <route id="ns02to07_to_ew18to17_4" edges="ns02to07 we07to08 ns08to14 ew14to13 ns13to19 ew19to18 ew18to17"/>
    <route id="ns02to07_to_ns18to24" edges="ns02to07 ew07to06 ns06to12 ns12to18 ns18to24"/>
    <route id="ns02to07_to_ns18to24_1" edges="ns02to07 ns07to13 we13to14 ns14to20 ew20to19 ew19to18 ns18to24"/>
    <route id="ns02to07_to_ns18to24_2" edges="ns02to07 ew07to06 ns06to12 we12to13 ns13to19 ew19to18 ns18to24"/>
    <route id="ns02to07_to_ns18to24_3" edges="ns02to07 we07to08 ns08to14 ew14to13 ew13to12 ns12to18 ns18to24"/>
    <route id="ns02to07_to_ns18to24_4" edges="ns02to07 we07to08 ns08to14 ew14to13 ns13to19 ew19to18 ns18to24"/>
    <route id="ns02to07_to_ns19to25" edges="ns02to07 ns07to13 ew13to12 ns12to18 we18to19 ns19to25"/>
    <route id="ns02to07_to_ns19to25_1" edges="ns02to07 we07to08 ns08to14 ew14to13 ns13to19 ns19to25"/>
    <route id="ns02to07_to_ns19to25_2" edges="ns02to07 ew07to06 ns06to12 ns12to18 we18to19 ns19to25"/>
    <route id="ns02to07_to_ns19to25_3" edges="ns02to07 ew07to06 ns06to12 we12to13 ns13to19 ns19to25"/>
    <route id="ns02to07_to_ns19to25_4" edges="ns02to07 we07to08 ns08to14 ew14to13 ew13to12 ns12to18 we18to19 ns19to25"/>
    <route id="ns02to07_to_ns20to26" edges="ns02to07 we07to08 ns08to14 ns14to20 ns20to26"/>
    <route id="ns02to07_to_ns20to26_1" edges="ns02to07 ns07to13 ns13to19 we19to20 ns20to26"/>
    <route id="ns02to07_to_ns20to26_2" edges="ns02to07 ns07to13 ew13to12 ns12to18 we18to19 we19to20 ns20to26"/>
    <route id="ns02to07_to_ns20to26_3" edges="ns02to07 ew07to06 ns06to12 ns12to18 we18to19 we19to20 ns20to26"/>
    <route id="ns02to07_to_ns20to26_4" edges="ns02to07 ew07to06 ns06to12 we12to13 ns13to19 we19to20 ns20to26"/>
    <route id="ns02to07_to_we08to09" edges="ns02to07 we07to08 we08to09"/>
    <route id="ns02to07_to_we08to09_1" edges="ns02to07 ns07to13 we13to14 sn14to08 we08to09"/>
    <route id="ns02to07_to_we08to09_2" edges="ns02to07 ew07to06 ns06to12 we12to13 we13to14 sn14to08 we08to09"/>
    <route id="ns02to07_to_we08to09_3" edges="ns02to07 ns07to13 ns13to19 we19to20 sn20to14 sn14to08 we08to09"/>
    <route id="ns02to07_to_we08to09_4" edges="ns02to07 ew07to06 ns06to12 we12to13 ns13to19 we19to20 sn20to14 sn14to08 we08to09"/>
    <route id="ns02to07_to_we14to15" edges="ns02to07 we07to08 ns08to14 we14to15"/>
    <route id="ns02to07_to_we14to15_1" edges="ns02to07 ns07to13 we13to14 we14to15"/>
    <route id="ns02to07_to_we14to15_2" edges="ns02to07 ew07to06 ns06to12 we12to13 we13to14 we14to15"/>
    <route id="ns02to07_to_we14to15_3" edges="ns02to07 ew07to06 ns06to12 we12to13 ns13to19 we19to20 sn20to14 we14to15"/>
    <route id="ns02to07_to_we14to15_4" edges="ns02to07 ew07to06 ns06to12 ns12to18 we18to19 we19to20 sn20to14 we14to15"/>
    <route id="ns02to07_to_we20to21" edges="ns02to07 we07to08 ns08to14 ns14to20 we20to21"/>
    <route id="ns02to07_to_we20to21_1" edges="ns02to07 ns07to13 ew13to12 ns12to18 we18to19 we19to20 we20to21"/>
    <route id="ns02to07_to_we20to21_2" edges="ns02to07 we07to08 ns08to14 ew14to13 ns13to19 we19to20 we20to21"/>
    <route id="ns02to07_to_we20to21_3" edges="ns02to07 ew07to06 ns06to12 ns12to18 we18to19 we19to20 we20to21"/>
    <route id="ns02to07_to_we20to21_4" edges="ns02to07 ew07to06 ns06to12 we12to13 ns13to19 we19to20 we20to21"/>

    <route id="ns03to08_to_ew06to05" edges="ns03to08 ew08to07 ew07to06 ew06to05"/>
    <route id="ns03to08_to_ew06to05_1" edges="ns03to08 ns08to14 ew14to13 ew13to12 sn12to06 ew06to05"/>
    <route id="ns03to08_to_ew06to05_2" edges="ns03to08 ns08to14 ew14to13 sn13to07 ew07to06 ew06to05"/>
    <route id="ns03to08_to_ew06to05_3" edges="ns03to08 ew08to07 ns07to13 ns13to19 ew19to18 sn18to12 sn12to06 ew06to05"/>
    <route id="ns03to08_to_ew06to05_4" edges="ns03to08 ns08to14 ns14to20 ew20to19 ew19to18 sn18to12 sn12to06 ew06to05"/>
    <route id="ns03to08_to_ew12to11" edges="ns03to08 ns08to14 ew14to13 ew13to12 ew12to11"/>
    <route id="ns03to08_to_ew12to11_1" edges="ns03to08 ns08to14 ew14to13 sn13to07 ew07to06 ns06to12 ew12to11"/>
    <route id="ns03to08_to_ew12to11_2" edges="ns03to08 ns08to14 ew14to13 ns13to19 ew19to18 sn18to12 ew12to11"/>
    <route id="ns03to08_to_ew12to11_3" edges="ns03to08 ns08to14 ns14to20 ew20to19 ew19to18 sn18to12 ew12to11"/>
    <route id="ns03to08_to_ew12to11_4" edges="ns03to08 ns08to14 ns14to20 ew20to19 sn19to13 ew13to12 ew12to11"/>
    <route id="ns03to08_to_ew18to17" edges="ns03to08 ew08to07 ns07to13 ew13to12 ns12to18 ew18to17"/>
    <route id="ns03to08_to_ew18to17_1" edges="ns03to08 ew08to07 ew07to06 ns06to12 ns12to18 ew18to17"/>
    <route id="ns03to08_to_ew18to17_2" edges="ns03to08 ns08to14 ns14to20 ew20to19 ew19to18 ew18to17"/>
    <route id="ns03to08_to_ew18to17_3" edges="ns03to08 ns08to14 ew14to13 ns13to19 ew19to18 ew18to17"/>
    <route id="ns03to08_to_ew18to17_4" edges="ns03to08 ew08to07 ew07to06 ns06to12 we12to13 ns13to19 ew19to18 ew18to17"/>
    <route id="ns03to08_to_ns18to24" edges="ns03to08 ew08to07 ns07to13 ns13to19 ew19to18 ns18to24"/>
    <route id="ns03to08_to_ns18to24_1" edges="ns03to08 ns08to14 ns14to20 ew20to19 ew19to18 ns18to24"/>
    <route id="ns03to08_to_ns18to24_2" edges="ns03to08 ns08to14 ew14to13 ew13to12 ns12to18 ns18to24"/>
    <route id="ns03to08_to_ns18to24_3" edges="ns03to08 ew08to07 ns07to13 we13to14 ns14to20 ew20to19 ew19to18 ns18to24"/>
    <route id="ns03to08_to_ns18to24_4" edges="ns03to08 ew08to07 ew07to06 ns06to12 we12to13 ns13to19 ew19to18 ns18to24"/>
    <route id="ns03to08_to_ns19to25" edges="ns03to08 ns08to14 ns14to20 ew20to19 ns19to25"/>
    <route id="ns03to08_to_ns19to25_1" edges="ns03to08 ew08to07 ew07to06 ns06to12 ns12to18 we18to19 ns19to25"/>
    <route id="ns03to08_to_ns19to25_2" edges="ns03to08 ew08to07 ns07to13 ew13to12 ns12to18 we18to19 ns19to25"/>
    <route id="ns03to08_to_ns19to25_3" edges="ns03to08 ew08to07 ew07to06 ns06to12 we12to13 ns13to19 ns19to25"/>
    <route id="ns03to08_to_ns19to25_4" edges="ns03to08 ew08to07 ns07to13 we13to14 ns14to20 ew20to19 ns19to25"/>
    <route id="ns03to08_to_ns20to26" edges="ns03to08 ns08to14 ns14to20 ns20to26"/>
    <route id="ns03to08_to_ns20to26_1" edges="ns03to08 ew08to07 ns07to13 we13to14 ns14to20 ns20to26"/>
    <route id="ns03to08_to_ns20to26_2" edges="ns03to08 ns08to14 ew14to13 ew13to12 ns12to18 we18to19 we19to20 ns20to26"/>
    <route id="ns03to08_to_ns20to26_3" edges="ns03to08 ew08to07 ns07to13 ew13to12 ns12to18 we18to19 we19to20 ns20to26"/>
    <route id="ns03to08_to_ns20to26_4" edges="ns03to08 ew08to07 ew07to06 ns06to12 ns12to18 we18to19 we19to20 ns20to26"/>
    <route id="ns03to08_to_we08to09" edges="ns03to08 we08to09"/>
    <route id="ns03to08_to_we14to15" edges="ns03to08 ew08to07 ns07to13 we13to14 we14to15"/>
    <route id="ns03to08_to_we14to15_1" edges="ns03to08 ew08to07 ew07to06 ns06to12 we12to13 we13to14 we14to15"/>
    <route id="ns03to08_to_we14to15_2" edges="ns03to08 ew08to07 ns07to13 ns13to19 we19to20 sn20to14 we14to15"/>